 Gaussian 16, Revision C.01,
 Gaussian 16:  ES64L-G16RevC.01  3-Jul-2019

 ------------------
 #p sp b3lyp/6-31g*
 ------------------

 ----------------------------
 lig_h + cluster-tetrad-h.pdb
 ----------------------------
 Symbolic Z-matrix:
 Charge =  0 Multiplicity = 1

                         Standard orientation:
 ---------------------------------------------------------------------
 Center     Atomic      Atomic             Coordinates (Angstroms)
 Number     Number       Type             X           Y           Z
 ---------------------------------------------------------------------
      1          7           0        6.021265   -5.406159   -0.274252
      2          6           0        6.070870   -4.364002    0.782063
      3          6           0        5.278927   -4.794967    2.029654
      4          8           0        5.418395   -4.110914    3.056183
      5          6           0        5.756706   -2.972740    0.235666
      6          6           0        4.331924   -2.692239   -0.107921
      7          6           0        3.784785   -2.166280   -1.225387
      8          7           0        3.297323   -2.901871    0.770693
      9          6           0        2.170045   -2.484526    0.211602
     10          7           0        2.450136   -2.021013   -1.003236
     11          1           0        6.331128   -6.345287   -0.071421
     12          1           0        5.677896   -5.175425   -1.195440
     13          1           0        7.098252   -4.267235    1.134677
     14          1           0        4.622626   -5.665121    2.012945
     15          1           0        6.296045   -2.908812   -0.708690
     16          1           0        6.064961   -2.244935    0.986693
     17          1           0        4.316709   -1.905581   -2.140399
     18          1           0        1.181777   -2.515759    0.670035
     19          1           0        1.783927   -1.626786   -1.652335
     20          7           0       -4.680837   -0.374608    3.179818
     21          6           0       -5.206443   -1.721099    3.421705
     22          6           0       -5.632436   -2.377203    2.122786
     23          8           0       -5.837772   -3.605496    2.165692
     24          1           0       -3.953984   -0.002350    3.773557
     25          1           0       -6.076110   -1.642647    4.073995
     26          1           0       -4.432536   -2.327524    3.892037
     27          1           0       -5.045721    0.181361    2.419394
     28          7           0       -5.758816   -1.607006    1.036230
     29          6           0       -6.276890   -2.103561   -0.279130
     30          6           0       -5.158082   -2.777834   -1.068383
     31          8           0       -5.479924   -3.448164   -2.054724
     32          6           0       -6.919945   -1.023589   -1.119341
     33          8           0       -5.982537   -0.020633   -1.514840
     34          1           0       -7.059049   -2.825940   -0.045645
     35          1           0       -7.690502   -0.543558   -0.516167
     36          1           0       -7.346397   -1.479931   -2.013038
     37          1           0       -5.489532   -0.636115    1.106172
     38          1           0       -5.268110    0.020560   -0.875235
     39          7           0       -3.896018   -2.633264   -0.667145
     40          6           0       -2.771721   -3.282618   -1.378584
     41          6           0       -3.024003   -4.794747   -1.515653
     42          8           0       -3.622401   -5.420491   -0.620389
     43          6           0       -1.437627   -2.931467   -0.734099
     44         16           0       -1.120707   -1.141108   -0.720299
     45          1           0       -2.713142   -2.892177   -2.394140
     46          1           0       -2.676316   -5.322749   -2.403899
     47          1           0       -0.650773   -3.402622   -1.324173
     48          1           0       -1.438433   -3.294482    0.293748
     49          1           0       -1.416406   -0.624922   -1.921513
     50          1           0       -3.700955   -2.065446    0.145002
     51          6           0        0.700671    8.027408   -0.417897
     52          7           0        0.833223    5.695214    0.140179
     53          8           0        0.208988    7.118049    1.735667
     54          6           0        0.570967    6.922088    0.580867
     55          7           0        1.800948    2.279858    0.824988
     56          8           0       -4.290263    2.978698   -2.150270
     57          6           0        1.004493    4.559887    1.035523
     58          8           0        1.840214    3.600429   -0.994565
     59          6           0       -0.315261    4.127576    1.695643
     60          6           0       -1.400730    3.818755    0.693937
     61          6           0       -2.436656    4.710529    0.457469
     62          6           0       -3.417812    4.442560   -0.482147
     63          6           0       -3.364304    3.263904   -1.205263
     64          6           0       -2.338570    2.367434   -0.990796
     65          6           0       -1.370232    2.647177   -0.045346
     66          6           0        1.600370    3.434556    0.200152
     67          6           0        2.074167    1.068793    0.081330
     68          6           0        3.471820    1.046414   -0.352535
     69          6           0        4.633738    0.893765   -0.604410
     70         35           0        6.508656    0.494691   -0.838348
     71          1           0        1.209522    7.655300   -1.307072
     72          1           0       -0.290118    8.388460   -0.691863
     73          1           0        1.278305    8.843711    0.015756
     74          1           0        0.916914    5.545013   -0.855441
     75          1           0        1.762285    2.246244    1.833707
     76          1           0       -4.789914    2.202914   -1.885350
     77          1           0        1.662202    4.830688    1.861880
     78          1           0       -0.663042    4.960449    2.306616
     79          1           0       -0.129898    3.235709    2.294161
     80          1           0       -2.479007    5.641627    1.022676
     81          1           0       -4.225850    5.154134   -0.650730
     82          1           0       -2.291715    1.441871   -1.564134
     83          1           0       -0.565400    1.930968    0.122119
     84          1           0        1.428822    1.037684   -0.796544
     85          1           0        1.879034    0.204381    0.715837
     86          1           0        3.758448    1.228771    0.683489
     87          1           0        3.191430    0.999582   -1.404781
     88          1           0        4.864154    1.229119    0.406593
     89          1           0        4.416036    0.666669   -1.648087
 ---------------------------------------------------------------------

 SCF Done:  E(RB3LYP) =  -5101.91374582     A.U. after   18 cycles

 The electronic state is 1-A.
 Alpha  occ. eigenvalues -- -482.90322 -88.92866 -61.86474 -56.38587 -56.38160
 Alpha  occ. eigenvalues --  -56.38107 -19.18718 -19.17192 -19.16984 -19.14868
 Alpha  occ. eigenvalues --  -19.12955 -19.12703 -19.12227 -19.10474 -14.40687
 Alpha  occ. eigenvalues --  -14.40338 -14.39881 -14.39497 -14.36115 -14.33524
 Alpha  occ. eigenvalues --  -14.31182 -14.30547 -10.31819 -10.30978 -10.30723
 Alpha  occ. eigenvalues --  -10.30407 -10.30352 -10.28269 -10.28263 -10.28123
 Alpha  occ. eigenvalues --  -10.26931 -10.26644 -10.25788 -10.25558 -10.25213
 Alpha  occ. eigenvalues --  -10.24960 -10.23823 -10.22924 -10.22046 -10.21683
 Alpha  occ. eigenvalues --  -10.20515 -10.20404 -10.20283 -10.20221 -10.20028
 Alpha  occ. eigenvalues --  -10.19927 -10.19645 -10.19252 -10.19076 -10.18954
 Alpha  occ. eigenvalues --   -8.57594  -7.99232  -6.53039  -6.51722  -6.51563
 Alpha  occ. eigenvalues --   -5.95758  -5.95308  -5.94692  -2.64600  -2.64259
 Alpha  occ. eigenvalues --   -2.64136  -2.63089  -2.63085  -1.07593  -1.06713
 Alpha  occ. eigenvalues --   -1.06530  -1.05546  -1.04294  -1.03837  -1.03646
 Alpha  occ. eigenvalues --   -1.03446  -1.00914  -0.98339  -0.96152  -0.94955
 Alpha  occ. eigenvalues --   -0.93164  -0.92433  -0.89432  -0.88104  -0.87347
 Alpha  occ. eigenvalues --   -0.86488  -0.85908  -0.82166  -0.80119  -0.79673
 Alpha  occ. eigenvalues --   -0.77981  -0.77305  -0.76378  -0.76321  -0.75364
 Alpha  occ. eigenvalues --   -0.73334  -0.72472  -0.71814  -0.69130  -0.67965
 Alpha  occ. eigenvalues --   -0.67810  -0.66838  -0.65990  -0.63776  -0.63546
 Alpha  occ. eigenvalues --   -0.63159  -0.62618  -0.62549  -0.61050  -0.60083
 Alpha  occ. eigenvalues --   -0.59153  -0.58679  -0.58395  -0.57804  -0.57587
 Alpha  occ. eigenvalues --   -0.56399  -0.56036  -0.55739  -0.54042  -0.53987
 Alpha  occ. eigenvalues --   -0.52202  -0.51811  -0.51103  -0.51023  -0.50390
 Alpha  occ. eigenvalues --   -0.49794  -0.49660  -0.48617  -0.48598  -0.48391
 Alpha  occ. eigenvalues --   -0.48156  -0.47993  -0.47713  -0.47418  -0.47057
 Alpha  occ. eigenvalues --   -0.46612  -0.46336  -0.46146  -0.46015  -0.45867
 Alpha  occ. eigenvalues --   -0.45326  -0.44947  -0.44854  -0.44535  -0.44275
 Alpha  occ. eigenvalues --   -0.43777  -0.43420  -0.43146  -0.42922  -0.42826
 Alpha  occ. eigenvalues --   -0.42490  -0.42247  -0.40936  -0.40912  -0.40730
 Alpha  occ. eigenvalues --   -0.40527  -0.40136  -0.40086  -0.39298  -0.39236
 Alpha  occ. eigenvalues --   -0.38380  -0.38285  -0.38018  -0.37027  -0.36858
 Alpha  occ. eigenvalues --   -0.36718  -0.36405  -0.36355  -0.36077  -0.35836
 Alpha  occ. eigenvalues --   -0.34619  -0.34434  -0.33499  -0.31174  -0.31048
 Alpha  occ. eigenvalues --   -0.30446  -0.30197  -0.29800  -0.28862  -0.28337
 Alpha  occ. eigenvalues --   -0.28291  -0.27405  -0.27225  -0.26779  -0.26649
 Alpha  occ. eigenvalues --   -0.26182  -0.25958  -0.25913  -0.24745  -0.24582
 Alpha  occ. eigenvalues --   -0.24404  -0.24278  -0.23675  -0.23236  -0.20577
 Alpha  occ. eigenvalues --   -0.18081
 Alpha virt. eigenvalues --   -0.11416  -0.06390  -0.02475  -0.01678  -0.01533
 Alpha virt. eigenvalues --   -0.01321  -0.00770  -0.00673  -0.00028   0.00063
 Alpha virt. eigenvalues --    0.00808   0.00878   0.02460   0.02772   0.03263

 Mulliken charges:
               1
     1  N   -0.808604
     2  C    0.028764
     3  C    0.258117
     4  O   -0.416549
     5  C   -0.346837
     6  C    0.264122
     7  C   -0.029810
     8  N   -0.484595
     9  C    0.187331
    10  N   -0.556439
    11  H    0.314970
    12  H    0.313345
    13  H    0.158679
    14  H    0.121632
    15  H    0.153401
    16  H    0.189539
    17  H    0.160111
    18  H    0.156011
    19  H    0.334256
    20  N   -0.806392
    21  C   -0.170811
    22  C    0.593410
    23  O   -0.508116
    24  H    0.328948
    25  H    0.177960
    26  H    0.182850
    27  H    0.308669
    28  N   -0.650668
    29  C   -0.098782
    30  C    0.680819
    31  O   -0.542124
    32  C   -0.026164
    33  O   -0.640306
    34  H    0.220846
    35  H    0.152670
    36  H    0.200618
    37  H    0.305095
    38  H    0.386858
    39  N   -0.610061
    40  C    0.013638
    41  C    0.251429
    42  O   -0.366461
    43  C   -0.464328
    44  S   -0.112138
    45  H    0.168218
    46  H    0.143806
    47  H    0.204937
    48  H    0.226147
    49  H    0.125230
    50  H    0.345650
    51  C   -0.535571
    52  N   -0.590381
    53  O   -0.532534
    54  C    0.593690
    55  N   -0.585279
    56  O   -0.657861
    57  C   -0.032298
    58  O   -0.523746
    59  C   -0.375647
    60  C    0.175139
    61  C   -0.207684
    62  C   -0.155412
    63  C    0.315842
    64  C   -0.167242
    65  C   -0.191602
    66  C    0.625017
    67  C   -0.174772
    68  C   -0.176292
    69  C   -0.198671
    70  Br  -0.109364
    71  H    0.151495
    72  H    0.184294
    73  H    0.190152
    74  H    0.351690
    75  H    0.349245
    76  H    0.414132
    77  H    0.182505
    78  H    0.203726
    79  H    0.126519
    80  H    0.150924
    81  H    0.141783
    82  H    0.097484
    83  H    0.132117
    84  H    0.205139
    85  H    0.225612
    86  H    0.139773
    87  H    0.139314
    88  H    0.058753
    89  H    0.041120
 Sum of Mulliken charges =  -0.00000

 Dipole moment (field-independent basis, Debye):
    X=             -2.2723    Y=              1.6807    Z=             -2.5184  Tot=              3.7856
 Quadrupole moment (field-independent basis, Debye-Ang):
   XX=           -331.4512   YY=           -331.8248   ZZ=           -303.6781
   XY=            -29.8476   XZ=            -22.8247   YZ=             17.7713

 Normal termination of Gaussian 16 at Sun Mar 22 21:54:06 2020.
