 Gaussian 16, Revision C.01,
 Gaussian 16:  ES64L-G16RevC.01  3-Jul-2019

 ------------------
 #p sp b3lyp/6-31g*
 ------------------

 --------------------
 cluster-tetrad-h.pdb
 --------------------
 Symbolic Z-matrix:
 Charge =  0 Multiplicity = 1

                         Standard orientation:
 ---------------------------------------------------------------------
 Center     Atomic      Atomic             Coordinates (Angstroms)
 Number     Number       Type             X           Y           Z
 ---------------------------------------------------------------------
      1          7           0        7.484431   -0.825911    1.446663
      2          6           0        7.402528    0.344348    0.536641
      3          6           0        6.728730    1.543395    1.227780
      4          8           0        6.791101    2.640968    0.651078
      5          6           0        6.855403   -0.031237   -0.839022
      6          6           0        5.393986   -0.320583   -0.924325
      7          6           0        4.735335   -1.361415   -1.478918
      8          7           0        4.433993    0.541197   -0.453094
      9          6           0        3.237723    0.049889   -0.744760
     10          7           0        3.402257   -1.105990   -1.381942
     11          1           0        7.944980   -0.738532    2.340741
     12          1           0        7.079755   -1.709100    1.171087
     13          1           0        8.412459    0.692115    0.316843
     14          1           0        6.217840    1.433734    2.184412
     15          1           0        7.347506   -0.968740   -1.095352
     16          1           0        7.068669    0.795618   -1.516953
     17          1           0        5.189990   -2.246651   -1.923664
     18          1           0        2.281901    0.514670   -0.503531
     19          1           0        2.661817   -1.695541   -1.735153
     20          7           0       -3.762209    3.335829   -1.377355
     21          6           0       -4.060666    3.425476    0.054671
     22          6           0       -4.418917    2.064505    0.619071
     23          8           0       -4.426287    1.966111    1.861235
     24          1           0       -3.084692    3.959295   -1.791694
     25          1           0       -4.910572    4.094018    0.191300
     26          1           0       -3.186130    3.811234    0.578385
     27          1           0       -4.234343    2.650634   -1.950140
     28          7           0       -4.699876    1.077332   -0.239027
     29          6           0       -5.174719   -0.280064    0.181850
     30          6           0       -3.989224   -1.157668    0.573905
     31          8           0       -4.232475   -2.211292    1.170980
     32          6           0       -6.006662   -0.979455   -0.869119
     33          8           0       -5.252441   -1.267345   -2.047823
     34          1           0       -5.825178   -0.122298    1.042160
     35          1           0       -6.823718   -0.314016   -1.147715
     36          1           0       -6.383988   -1.914642   -0.454564
     37          1           0       -4.585158    1.256812   -1.226277
     38          1           0       -4.533458   -0.636911   -2.130358
     39          7           0       -2.753672   -0.759156    0.275081
     40          6           0       -1.564213   -1.556645    0.650645
     41          6           0       -1.578842   -1.866350    2.158238
     42          8           0       -2.042101   -1.042556    2.969342
     43          6           0       -0.282432   -0.893365    0.165288
     44         16           0       -0.251863   -0.674374   -1.639461
     45          1           0       -1.600411   -2.520222    0.143261
     46          1           0       -1.180648   -2.814845    2.519419
     47          1           0        0.549725   -1.544975    0.434052
     48          1           0       -0.193154    0.084856    0.637902
     49          1           0       -0.663484   -1.802871   -2.234326
     50          1           0       -2.624913    0.111183   -0.220884
 ---------------------------------------------------------------------

 SCF Done:  E(RB3LYP) =  -1650.62965029     A.U. after   15 cycles

 The electronic state is 1-A.
 Alpha  occ. eigenvalues --  -88.91476 -19.16636 -19.16176 -19.12457 -19.12006
 Alpha  occ. eigenvalues --  -19.11402 -14.39684 -14.38964 -14.38508 -14.32818
 Alpha  occ. eigenvalues --  -14.30471 -14.30173 -10.29755 -10.29584 -10.29547
 Alpha  occ. eigenvalues --  -10.27312 -10.27032 -10.25575 -10.25567 -10.25544
 Alpha  occ. eigenvalues --  -10.23951 -10.23099 -10.21989 -10.21140 -10.19826
 Alpha  occ. eigenvalues --  -10.19371  -7.97879  -5.94404  -5.93949  -5.93329
 Alpha  occ. eigenvalues --   -1.05312  -1.04216  -1.03320  -1.02981  -1.02620
 Alpha  occ. eigenvalues --   -1.00664  -0.95204  -0.94012  -0.88690  -0.87438
 Alpha  occ. eigenvalues --   -0.86117  -0.84791  -0.78973  -0.77534  -0.76133
 Alpha  occ. eigenvalues --   -0.72894  -0.70978  -0.67942  -0.66818  -0.65759
 Alpha  occ. eigenvalues --   -0.62741  -0.61652  -0.61609  -0.59177  -0.58189
 Alpha  occ. eigenvalues --   -0.56945  -0.56673  -0.54764  -0.53587  -0.52919
 Alpha  occ. eigenvalues --   -0.51194  -0.50697  -0.50309  -0.48669  -0.47588
 Alpha  occ. eigenvalues --   -0.47498  -0.47048  -0.46970  -0.46159  -0.45515
 Alpha  occ. eigenvalues --   -0.45187  -0.44416  -0.44185  -0.43873  -0.43388
 Alpha  occ. eigenvalues --   -0.42989  -0.41999  -0.41906  -0.41282  -0.40685
 Alpha  occ. eigenvalues --   -0.39796  -0.39201  -0.39021  -0.38234  -0.37418
 Alpha  occ. eigenvalues --   -0.36749  -0.36334  -0.35533  -0.34631  -0.33254
 Alpha  occ. eigenvalues --   -0.29383  -0.29149  -0.28853  -0.27345  -0.27217
 Alpha  occ. eigenvalues --   -0.26385  -0.25851  -0.25258  -0.25057  -0.24211
 Alpha  occ. eigenvalues --   -0.23009  -0.22505  -0.20457
 Alpha virt. eigenvalues --   -0.05503  -0.01372   0.00367   0.00743   0.00974
 Alpha virt. eigenvalues --    0.01741   0.02088   0.03365   0.05125   0.06443
 Alpha virt. eigenvalues --    0.07473   0.08238   0.08949   0.09376   0.10012

 Mulliken charges:
               1
     1  N   -0.808612
     2  C    0.033328
     3  C    0.259942
     4  O   -0.415265
     5  C   -0.352537
     6  C    0.266443
     7  C   -0.033148
     8  N   -0.488524
     9  C    0.214173
    10  N   -0.553686
    11  H    0.315003
    12  H    0.313243
    13  H    0.155594
    14  H    0.123032
    15  H    0.144493
    16  H    0.183181
    17  H    0.141271
    18  H    0.159539
    19  H    0.336438
    20  N   -0.806479
    21  C   -0.170599
    22  C    0.593771
    23  O   -0.510481
    24  H    0.329129
    25  H    0.175331
    26  H    0.182926
    27  H    0.307194
    28  N   -0.649797
    29  C   -0.096741
    30  C    0.682092
    31  O   -0.545701
    32  C   -0.026154
    33  O   -0.629498
    34  H    0.216085
    35  H    0.145705
    36  H    0.193821
    37  H    0.304446
    38  H    0.385656
    39  N   -0.609156
    40  C    0.014631
    41  C    0.251611
    42  O   -0.368339
    43  C   -0.457379
    44  S   -0.103732
    45  H    0.165374
    46  H    0.140081
    47  H    0.200991
    48  H    0.225369
    49  H    0.120587
    50  H    0.345348
 Sum of Mulliken charges =  -0.00000

 Dipole moment (field-independent basis, Debye):
    X=              0.0014    Y=             -3.9660    Z=             -5.5607  Tot=              6.8301
 Quadrupole moment (field-independent basis, Debye-Ang):
   XX=           -176.8534   YY=           -161.0772   ZZ=           -168.8875
   XY=            -39.6053   XZ=             22.9050   YZ=             -3.3233

 Normal termination of Gaussian 16 at Sun Mar 22 21:52:12 2020.
