 Gaussian 16, Revision C.01,
 Gaussian 16:  ES64L-G16RevC.01  3-Jul-2019

 ------------------
 #p sp b3lyp/6-31g*
 ------------------

 ---------
 lig-h.pdb
 ---------
 Symbolic Z-matrix:
 Charge =  0 Multiplicity = 1

                         Standard orientation:
 ---------------------------------------------------------------------
 Center     Atomic      Atomic             Coordinates (Angstroms)
 Number     Number       Type             X           Y           Z
 ---------------------------------------------------------------------
      1          6           0       -2.800474    3.689367   -1.611940
      2          7           0       -1.634640    1.971038   -0.405157
      3          8           0       -2.937346    3.359612    0.750062
      4          6           0       -2.460269    3.010236   -0.323869
      5          7           0        0.764368   -0.231711    1.164164
      6          8           0       -4.775568   -3.339467   -1.304510
      7          6           0       -1.008446    1.373074    0.765425
      8          8           0        0.291485    0.336252   -0.959517
      9          6           0       -2.013061    0.608840    1.643546
     10          6           0       -2.772482   -0.450484    0.883191
     11          6           0       -4.088223   -0.251203    0.491481
     12          6           0       -4.777885   -1.209784   -0.231598
     13          6           0       -4.143014   -2.390098   -0.576256
     14          6           0       -2.832850   -2.604656   -0.203133
     15          6           0       -2.160314   -1.640328    0.523211
     16          6           0        0.087781    0.451308    0.247816
     17          6           0        1.609727   -1.344835    0.789096
     18          6           0        2.880940   -0.856070    0.253092
     19          6           0        3.993618   -0.528650   -0.049470
     20         35           0        5.849969   -0.075483   -0.328576
     21          1           0       -2.127121    3.340793   -2.394958
     22          1           0       -3.828247    3.454435   -1.886841
     23          1           0       -2.692730    4.767614   -1.494295
     24          1           0       -1.433985    1.580996   -1.315338
     25          1           0        0.687950    0.029324    2.136871
     26          1           0       -4.873153   -4.135703   -0.777102
     27          1           0       -0.599640    2.151594    1.410068
     28          1           0       -2.741524    1.331487    2.011022
     29          1           0       -1.470199    0.130469    2.458699
     30          1           0       -4.589475    0.679332    0.758023
     31          1           0       -5.812493   -1.036167   -0.526767
     32          1           0       -2.329714   -3.530980   -0.479459
     33          1           0       -1.126329   -1.819624    0.818984
     34          1           0        1.103750   -1.933088    0.023560
     35          1           0        1.801323   -1.963395    1.665771
     36          1           0        2.990555   -0.257449    1.157742
     37          1           0        2.714979   -1.343530   -0.707571
     38          1           0        3.984066    0.164483    0.791456
     39          1           0        3.966124   -1.135448   -0.954604
 ---------------------------------------------------------------------

 SCF Done:  E(RB3LYP) =  -3451.28084057     A.U. after   18 cycles

 The electronic state is 1-A.
 Alpha  occ. eigenvalues -- -482.89762 -61.85953 -56.38128 -56.37683 -56.37639
 Alpha  occ. eigenvalues --  -19.16729 -19.14417 -19.10014 -14.40027 -14.35634
 Alpha  occ. eigenvalues --  -10.31395 -10.30943 -10.27808 -10.25062 -10.24291
 Alpha  occ. eigenvalues --  -10.22680 -10.19881 -10.19418 -10.19301 -10.19039
 Alpha  occ. eigenvalues --  -10.18910 -10.18794 -10.18744 -10.18667  -8.57158
 Alpha  occ. eigenvalues --   -6.52633  -6.51308  -6.51139  -2.64195  -2.63854
 Alpha  occ. eigenvalues --   -2.63723  -2.62670  -2.62666  -1.07165  -1.06003
 Alpha  occ. eigenvalues --   -1.02985  -0.98029  -0.92690  -0.92142  -0.86448
 Alpha  occ. eigenvalues --   -0.81720  -0.79186  -0.75762  -0.75413  -0.74939
 Alpha  occ. eigenvalues --   -0.71942  -0.67348  -0.66385  -0.63194  -0.62261
 Alpha  occ. eigenvalues --   -0.60369  -0.58844  -0.57812  -0.56118  -0.55087
 Alpha  occ. eigenvalues --   -0.50680  -0.50455  -0.49283  -0.47937  -0.47653
 Alpha  occ. eigenvalues --   -0.46979  -0.46002  -0.45581  -0.45086  -0.44374
 Alpha  occ. eigenvalues --   -0.42960  -0.42456  -0.41802  -0.40373  -0.40061
 Alpha  occ. eigenvalues --   -0.39520  -0.38834  -0.36465  -0.36004  -0.35798
 Alpha  occ. eigenvalues --   -0.35091  -0.34158  -0.33946  -0.30453  -0.29866
 Alpha  occ. eigenvalues --   -0.28406  -0.27040  -0.25881  -0.25360  -0.24328
 Alpha  occ. eigenvalues --   -0.24091  -0.23473  -0.17723
 Alpha virt. eigenvalues --   -0.11052  -0.01505  -0.00181   0.00099   0.00753
 Alpha virt. eigenvalues --    0.03092   0.04715   0.07094   0.07338   0.09122
 Alpha virt. eigenvalues --    0.09708   0.10098   0.11034   0.12150   0.13097

 Mulliken charges:
               1
     1  C   -0.535538
     2  N   -0.589846
     3  O   -0.533022
     4  C    0.593949
     5  N   -0.582015
     6  O   -0.656380
     7  C   -0.032303
     8  O   -0.521038
     9  C   -0.376150
    10  C    0.178571
    11  C   -0.207142
    12  C   -0.153443
    13  C    0.327724
    14  C   -0.172458
    15  C   -0.185891
    16  C    0.626649
    17  C   -0.173994
    18  C   -0.185756
    19  C   -0.207322
    20  Br  -0.105609
    21  H    0.151524
    22  H    0.184290
    23  H    0.188674
    24  H    0.352281
    25  H    0.346957
    26  H    0.410641
    27  H    0.179880
    28  H    0.203253
    29  H    0.125659
    30  H    0.147644
    31  H    0.137695
    32  H    0.123886
    33  H    0.118404
    34  H    0.220199
    35  H    0.210107
    36  H    0.121653
    37  H    0.156728
    38  H    0.054768
    39  H    0.056776
 Sum of Mulliken charges =  -0.00000

 Dipole moment (field-independent basis, Debye):
    X=             -1.9167    Y=             -3.5103    Z=              2.8481  Tot=              4.9099
 Quadrupole moment (field-independent basis, Debye-Ang):
   XX=           -156.4016   YY=           -124.8655   ZZ=           -130.1850
   XY=              7.0813   XZ=              6.8944   YZ=            -12.0573

 Normal termination of Gaussian 16 at Sun Mar 22 21:52:16 2020.
